8
S0 energy
I 2.5090 -0.1139 -0.0066
I -2.5091 0.1140 -0.0066
C 0.4860 0.5884 0.0066
C -0.4859 -0.5885 0.0066
H 0.3230 1.2225 -0.8726
H 0.3300 1.2162 0.8914
H -0.3300 -1.2163 0.8915
H -0.3231 -1.2227 -0.8726