5
S0 energy
C 0.0000 0.0000 -1.1892
I 0.0000 0.0000 0.9763
F 0.0000 1.2405 -1.6522
F 1.0743 -0.6203 -1.6522
F -1.0743 -0.6203 -1.6522