3
S0 energy
C   0   0   0
S   0   0  1.554
S   0   0  -1.554