22
S0 energy / H -231.82028796441909
N 0.77001 1.16739 0.01715
C 0.21728 0.55454 1.24773
C 0.21539 -1.03721 1.27869
N -0.45245 -1.42997 -0.01921
C 0.18913 -0.91546 -1.23128
C 0.12653 0.65583 -1.20602
C 1.13730 2.62926 -0.04432
C -1.87171 -1.80110 -0.00881
H -0.81567 0.89103 1.33645
H 0.61009 0.88804 2.20824
H -0.41423 -1.54316 2.01060
H 1.21822 -1.44084 1.13898
H 0.86564 0.86835 -1.97845
H -0.82149 1.09396 -1.51810
H 1.20804 -1.23959 -1.44306
H -0.60414 -1.36960 -1.82507
H 1.09500 3.09627 0.93966
H 0.30050 3.13698 -0.52400
H 1.90139 2.57781 -0.81995
H -1.74289 -2.73593 -0.55434
H -2.66752 -1.21937 -0.47397
H -2.23877 -1.94326 1.00763