2
S0 energy
I 0.0000 0.0000 0.0000
I 0.0000 0.0000 2.6655