2
S0 energy
N   0   0   0.5488
N   0   0   -0.5488